 Entering Gaussian System, Link 0=g09
 Input=/Users/josephmay/Documents/Courses/9.Winter_2013/CHEM_465-565/Homework/New_Problems/PIAB/ethene.com
 Output=/Users/josephmay/Documents/Courses/9.Winter_2013/CHEM_465-565/Homework/New_Problems/PIAB/ethene.log
 Initial command:
 /Applications/g09/l1.exe /Users/josephmay/Documents/Courses/9.Winter_2013/CHEM_465-565/Homework/New_Problems/PIAB/Gau-2963.inp -scrdir=/Users/josephmay/Documents/Courses/9.Winter_2013/CHEM_465-565/Homework/New_Problems/PIAB/
 Entering Link 1 = /Applications/g09/l1.exe PID=      2964.
  
 Copyright (c) 1988,1990,1992,1993,1995,1998,2003,2009,2011,
            Gaussian, Inc.  All Rights Reserved.
  
 This is part of the Gaussian(R) 09 program.  It is based on
 the Gaussian(R) 03 system (copyright 2003, Gaussian, Inc.),
 the Gaussian(R) 98 system (copyright 1998, Gaussian, Inc.),
 the Gaussian(R) 94 system (copyright 1995, Gaussian, Inc.),
 the Gaussian 92(TM) system (copyright 1992, Gaussian, Inc.),
 the Gaussian 90(TM) system (copyright 1990, Gaussian, Inc.),
 the Gaussian 88(TM) system (copyright 1988, Gaussian, Inc.),
 the Gaussian 86(TM) system (copyright 1986, Carnegie Mellon
 University), and the Gaussian 82(TM) system (copyright 1983,
 Carnegie Mellon University). Gaussian is a federally registered
 trademark of Gaussian, Inc.
  
 This software contains proprietary and confidential information,
 including trade secrets, belonging to Gaussian, Inc.
  
 This software is provided under written license and may be
 used, copied, transmitted, or stored only in accord with that
 written license.
  
 The following legend is applicable only to US Government
 contracts under FAR:
  
                    RESTRICTED RIGHTS LEGEND
  
 Use, reproduction and disclosure by the US Government is
 subject to restrictions as set forth in subparagraphs (a)
 and (c) of the Commercial Computer Software - Restricted
 Rights clause in FAR 52.227-19.
  
 Gaussian, Inc.
 340 Quinnipiac St., Bldg. 40, Wallingford CT 06492
  
  
 ---------------------------------------------------------------
 Warning -- This program may not be used in any manner that
 competes with the business of Gaussian, Inc. or will provide
 assistance to any competitor of Gaussian, Inc.  The licensee
 of this program is prohibited from giving any competitor of
 Gaussian, Inc. access to this program.  By using this program,
 the user acknowledges that Gaussian, Inc. is engaged in the
 business of creating and licensing software in the field of
 computational chemistry and represents and warrants to the
 licensee that it is not a competitor of Gaussian, Inc. and that
 it will not use this program in any manner prohibited above.
 ---------------------------------------------------------------
  

 Cite this work as:
 Gaussian 09, Revision C.01,
 M. J. Frisch, G. W. Trucks, H. B. Schlegel, G. E. Scuseria, 
 M. A. Robb, J. R. Cheeseman, G. Scalmani, V. Barone, B. Mennucci, 
 G. A. Petersson, H. Nakatsuji, M. Caricato, X. Li, H. P. Hratchian, 
 A. F. Izmaylov, J. Bloino, G. Zheng, J. L. Sonnenberg, M. Hada, 
 M. Ehara, K. Toyota, R. Fukuda, J. Hasegawa, M. Ishida, T. Nakajima, 
 Y. Honda, O. Kitao, H. Nakai, T. Vreven, J. A. Montgomery, Jr., 
 J. E. Peralta, F. Ogliaro, M. Bearpark, J. J. Heyd, E. Brothers, 
 K. N. Kudin, V. N. Staroverov, T. Keith, R. Kobayashi, J. Normand, 
 K. Raghavachari, A. Rendell, J. C. Burant, S. S. Iyengar, J. Tomasi, 
 M. Cossi, N. Rega, J. M. Millam, M. Klene, J. E. Knox, J. B. Cross, 
 V. Bakken, C. Adamo, J. Jaramillo, R. Gomperts, R. E. Stratmann, 
 O. Yazyev, A. J. Austin, R. Cammi, C. Pomelli, J. W. Ochterski, 
 R. L. Martin, K. Morokuma, V. G. Zakrzewski, G. A. Voth, 
 P. Salvador, J. J. Dannenberg, S. Dapprich, A. D. Daniels, 
 O. Farkas, J. B. Foresman, J. V. Ortiz, J. Cioslowski, 
 and D. J. Fox, Gaussian, Inc., Wallingford CT, 2010.
 
 ******************************************
 Gaussian 09:  EM64M-G09RevC.01 23-Sep-2011
                 7-Dec-2012 
 ******************************************
 %nprocshared=2
 Will use up to    2 processors via shared memory.
 %chk=ethene.chk
 --------------
 #p td hf/3-21g
 --------------
 1/38=1/1;
 2/12=2,17=6,18=5,40=1/2;
 3/5=5,11=9,16=1,25=1,30=1/1,2,8,3;
 4//1;
 5/5=2,38=5/2;
 8/6=1,10=1/1;
 9/42=1,70=1/14;
 6/7=2,8=2,9=2,10=2/1;
 99/5=1,9=1/99;
 Leave Link    1 at Fri Dec  7 12:12:22 2012, MaxMem=          0 cpu:       0.0
 (Enter /Applications/g09/l101.exe)
 -----------
 Ethene TDHF
 -----------
 Charge =  0 Multiplicity = 1
 Symbolic Z-Matrix:
 C                    -2.07219   0.41444   0. 
 C                    -0.74628   0.41444   0. 
 H                    -2.66578   1.33848   0. 
 H                    -2.66581  -0.50958  -0.00002 
 H                    -0.15269  -0.5096   -0.00002 
 H                    -0.15266   1.33845   0.00003 
 
 NAtoms=      6 NQM=        0 NQMF=       0 NMMI=      6 NMMIF=      0
                NMic=       0 NMicF=      0.
                    Isotopes and Nuclear Properties:
 (Nuclear quadrupole moments (NQMom) in fm**2, nuclear magnetic moments (NMagM)
  in nuclear magnetons)

  Atom         1           2           3           4           5           6
 IAtWgt=          12          12           1           1           1           1
 AtmWgt=  12.0000000  12.0000000   1.0078250   1.0078250   1.0078250   1.0078250
 NucSpn=           0           0           1           1           1           1
 AtZEff=   0.0000000   0.0000000   0.0000000   0.0000000   0.0000000   0.0000000
 NQMom=    0.0000000   0.0000000   0.0000000   0.0000000   0.0000000   0.0000000
 NMagM=    0.0000000   0.0000000   2.7928460   2.7928460   2.7928460   2.7928460
 Leave Link  101 at Fri Dec  7 12:12:23 2012, MaxMem=   33554432 cpu:       0.1
 (Enter /Applications/g09/l202.exe)
                          Input orientation:                          
 ---------------------------------------------------------------------
 Center     Atomic      Atomic             Coordinates (Angstroms)
 Number     Number       Type             X           Y           Z
 ---------------------------------------------------------------------
      1          6           0       -2.072192    0.414439    0.000000
      2          6           0       -0.746276    0.414439    0.000000
      3          1           0       -2.665777    1.338477    0.000000
      4          1           0       -2.665808   -0.509576   -0.000022
      5          1           0       -0.152691   -0.509600   -0.000019
      6          1           0       -0.152660    1.338453    0.000026
 ---------------------------------------------------------------------
                    Distance matrix (angstroms):
                    1          2          3          4          5
     1  C    0.000000
     2  C    1.325916   0.000000
     3  H    1.098267   2.130336   0.000000
     4  H    1.098263   2.130353   1.848052   0.000000
     5  H    2.130336   1.098267   3.119453   2.513117   0.000000
     6  H    2.130353   1.098263   2.513117   3.119474   1.848052
                    6
     6  H    0.000000
 Stoichiometry    C2H4
 Framework group  C1[X(C2H4)]
 Deg. of freedom    12
 Full point group                 C1      NOp   1
 Largest Abelian subgroup         C1      NOp   1
 Largest concise Abelian subgroup C1      NOp   1
                         Standard orientation:                         
 ---------------------------------------------------------------------
 Center     Atomic      Atomic             Coordinates (Angstroms)
 Number     Number       Type             X           Y           Z
 ---------------------------------------------------------------------
      1          6           0       -0.662958    0.000000   -0.000001
      2          6           0        0.662958    0.000000   -0.000001
      3          1           0       -1.256543   -0.924038   -0.000001
      4          1           0       -1.256574    0.924014    0.000021
      5          1           0        1.256543    0.924038    0.000018
      6          1           0        1.256574   -0.924014   -0.000027
 ---------------------------------------------------------------------
 Rotational constants (GHZ):    146.8262404     29.8802187     24.8276164
 Leave Link  202 at Fri Dec  7 12:12:23 2012, MaxMem=   33554432 cpu:       0.0
 (Enter /Applications/g09/l301.exe)
 Standard basis: 3-21G (6D, 7F)
 Ernie: Thresh=  0.10000D-02 Tol=  0.10000D-05 Strict=F.
 There are    26 symmetry adapted basis functions of A   symmetry.
 Integral buffers will be    131072 words long.
 Raffenetti 1 integral format.
 Two-electron integral symmetry is turned on.
    26 basis functions,    42 primitive gaussians,    26 cartesian basis functions
     8 alpha electrons        8 beta electrons
       nuclear repulsion energy        33.2263272448 Hartrees.
 IExCor=    0 DFT=F Ex=HF Corr=None ExCW=0 ScaHFX=  1.000000
 ScaDFX=  1.000000  1.000000  1.000000  1.000000 ScalE2=  1.000000  1.000000
 IRadAn=      0 IRanWt=     -1 IRanGd=            0 ICorTp=0
 NAtoms=    6 NActive=    6 NUniq=    6 SFac= 1.00D+00 NAtFMM=   60 NAOKFM=F Big=F
 Leave Link  301 at Fri Dec  7 12:12:24 2012, MaxMem=   33554432 cpu:       0.2
 (Enter /Applications/g09/l302.exe)
 NPDir=0 NMtPBC=     1 NCelOv=     1 NCel=       1 NClECP=     1 NCelD=      1
         NCelK=      1 NCelE2=     1 NClLst=     1 CellRange=     0.0.
 One-electron integrals computed using PRISM.
 NBasis=    26 RedAO= T  NBF=    26
 NBsUse=    26 1.00D-06 NBFU=    26
 Leave Link  302 at Fri Dec  7 12:12:24 2012, MaxMem=   33554432 cpu:       0.3
 (Enter /Applications/g09/l308.exe)
 Leave Link  308 at Fri Dec  7 12:12:24 2012, MaxMem=   33554432 cpu:       0.1
 (Enter /Applications/g09/l303.exe)
 DipDrv:  MaxL=1.
 Leave Link  303 at Fri Dec  7 12:12:25 2012, MaxMem=   33554432 cpu:       0.1
 (Enter /Applications/g09/l401.exe)
 Harris functional with IExCor=  205 diagonalized for initial guess.
 ExpMin= 1.83D-01 ExpMax= 1.72D+02 ExpMxC= 1.72D+02 IAcc=1 IRadAn=         1 AccDes= 0.00D+00
 HarFok:  IExCor=  205 AccDes= 0.00D+00 IRadAn=         1 IDoV= 1
 ScaDFX=  1.000000  1.000000  1.000000  1.000000
 FoFCou: FMM=F IPFlag=           0 FMFlag=      100000 FMFlg1=           0
         NFxFlg=           0 DoJE=T BraDBF=F KetDBF=T FulRan=T
         Omega=  0.000000  0.000000  1.000000  0.000000  0.000000 ICntrl=     500 IOpCl=  0
         NMat0=    1 NMatS0=    1 NMatT0=    0 NMatD0=    1 NMtDS0=    0 NMtDT0=    0
         I1Cent=           4 NGrid=           0.
 Petite list used in FoFCou.
 Harris En= -77.7705698648171    
 Initial guess orbital symmetries:
       Occupied  (A) (A) (A) (A) (A) (A) (A) (A)
       Virtual   (A) (A) (A) (A) (A) (A) (A) (A) (A) (A) (A) (A)
                 (A) (A) (A) (A) (A) (A)
 The electronic state of the initial guess is 1-A.
 Leave Link  401 at Fri Dec  7 12:12:25 2012, MaxMem=   33554432 cpu:       0.3
 (Enter /Applications/g09/l502.exe)
 Closed shell SCF:
 Requested convergence on RMS density matrix=1.00D-08 within 128 cycles.
 Requested convergence on MAX density matrix=1.00D-06.
 Requested convergence on             energy=1.00D-06.
 No special actions if energy rises.
 Using DIIS extrapolation, IDIIS=  1040.
 Integral symmetry usage will be decided dynamically.
 Keep R1 ints in memory in canonical form, NReq=882328.
 IEnd=       20538 IEndB=       20538 NGot=    33554432 MDV=    33489433
 LenX=    33489433 LenY=    33488316
 Symmetry not used in FoFDir.
 MinBra= 0 MaxBra= 1 Meth= 1.
 IRaf=       0 NMat=   1 IRICut=       1 DoRegI=T DoRafI=F ISym2E= 0 JSym2E=0.

 Cycle   1  Pass 1  IDiag  1:
 E= -77.4995618728579    
 DIIS: error= 7.26D-02 at cycle   1 NSaved=   1.
 NSaved= 1 IEnMin= 1 EnMin= -77.4995618728579     IErMin= 1 ErrMin= 7.26D-02
 ErrMax= 7.26D-02 EMaxC= 1.00D-01 BMatC= 1.08D-01 BMatP= 1.08D-01
 IDIUse=3 WtCom= 2.74D-01 WtEn= 7.26D-01
 Coeff-Com:  0.100D+01
 Coeff-En:   0.100D+01
 Coeff:      0.100D+01
 Gap=     0.572 Goal=   None    Shift=    0.000
 GapD=    0.572 DampG=2.000 DampE=0.500 DampFc=1.0000 IDamp=-1.
 RMSDP=1.31D-02 MaxDP=7.23D-02              OVMax= 1.10D-01

 Cycle   2  Pass 1  IDiag  1:
 E= -77.5883605595613     Delta-E=       -0.088798686703 Rises=F Damp=F
 DIIS: error= 1.99D-02 at cycle   2 NSaved=   2.
 NSaved= 2 IEnMin= 2 EnMin= -77.5883605595613     IErMin= 2 ErrMin= 1.99D-02
 ErrMax= 1.99D-02 EMaxC= 1.00D-01 BMatC= 1.17D-02 BMatP= 1.08D-01
 IDIUse=3 WtCom= 8.01D-01 WtEn= 1.99D-01
 Coeff-Com:  0.211D+00 0.789D+00
 Coeff-En:   0.000D+00 0.100D+01
 Coeff:      0.169D+00 0.831D+00
 Gap=     0.567 Goal=   None    Shift=    0.000
 RMSDP=3.71D-03 MaxDP=2.04D-02 DE=-8.88D-02 OVMax= 2.90D-02

 Cycle   3  Pass 1  IDiag  1:
 E= -77.5988114331012     Delta-E=       -0.010450873540 Rises=F Damp=F
 DIIS: error= 3.26D-03 at cycle   3 NSaved=   3.
 NSaved= 3 IEnMin= 3 EnMin= -77.5988114331012     IErMin= 3 ErrMin= 3.26D-03
 ErrMax= 3.26D-03 EMaxC= 1.00D-01 BMatC= 1.44D-04 BMatP= 1.17D-02
 IDIUse=3 WtCom= 9.67D-01 WtEn= 3.26D-02
 Coeff-Com: -0.220D-01 0.453D-01 0.977D+00
 Coeff-En:   0.000D+00 0.000D+00 0.100D+01
 Coeff:     -0.213D-01 0.438D-01 0.977D+00
 Gap=     0.562 Goal=   None    Shift=    0.000
 RMSDP=4.03D-04 MaxDP=2.49D-03 DE=-1.05D-02 OVMax= 4.50D-03

 Cycle   4  Pass 1  IDiag  1:
 E= -77.5989851306739     Delta-E=       -0.000173697573 Rises=F Damp=F
 DIIS: error= 3.03D-04 at cycle   4 NSaved=   4.
 NSaved= 4 IEnMin= 4 EnMin= -77.5989851306739     IErMin= 4 ErrMin= 3.03D-04
 ErrMax= 3.03D-04 EMaxC= 1.00D-01 BMatC= 1.24D-06 BMatP= 1.44D-04
 IDIUse=3 WtCom= 9.97D-01 WtEn= 3.03D-03
 Coeff-Com:  0.621D-02-0.213D-01-0.303D+00 0.132D+01
 Coeff-En:   0.000D+00 0.000D+00 0.000D+00 0.100D+01
 Coeff:      0.619D-02-0.212D-01-0.302D+00 0.132D+01
 Gap=     0.561 Goal=   None    Shift=    0.000
 RMSDP=9.83D-05 MaxDP=8.03D-04 DE=-1.74D-04 OVMax= 5.88D-04

 Cycle   5  Pass 1  IDiag  1:
 E= -77.5989873169236     Delta-E=       -0.000002186250 Rises=F Damp=F
 DIIS: error= 2.05D-05 at cycle   5 NSaved=   5.
 NSaved= 5 IEnMin= 5 EnMin= -77.5989873169236     IErMin= 5 ErrMin= 2.05D-05
 ErrMax= 2.05D-05 EMaxC= 1.00D-01 BMatC= 6.12D-09 BMatP= 1.24D-06
 IDIUse=1 WtCom= 1.00D+00 WtEn= 0.00D+00
 Coeff-Com: -0.150D-02 0.528D-02 0.738D-01-0.356D+00 0.128D+01
 Coeff:     -0.150D-02 0.528D-02 0.738D-01-0.356D+00 0.128D+01
 Gap=     0.561 Goal=   None    Shift=    0.000
 RMSDP=1.07D-05 MaxDP=1.10D-04 DE=-2.19D-06 OVMax= 5.86D-05

 Cycle   6  Pass 1  IDiag  1:
 E= -77.5989873310327     Delta-E=       -0.000000014109 Rises=F Damp=F
 DIIS: error= 1.89D-06 at cycle   6 NSaved=   6.
 NSaved= 6 IEnMin= 6 EnMin= -77.5989873310327     IErMin= 6 ErrMin= 1.89D-06
 ErrMax= 1.89D-06 EMaxC= 1.00D-01 BMatC= 6.68D-11 BMatP= 6.12D-09
 IDIUse=1 WtCom= 1.00D+00 WtEn= 0.00D+00
 Coeff-Com:  0.328D-03-0.114D-02-0.160D-01 0.785D-01-0.325D+00 0.126D+01
 Coeff:      0.328D-03-0.114D-02-0.160D-01 0.785D-01-0.325D+00 0.126D+01
 Gap=     0.561 Goal=   None    Shift=    0.000
 RMSDP=6.89D-07 MaxDP=4.13D-06 DE=-1.41D-08 OVMax= 4.89D-06

 Cycle   7  Pass 1  IDiag  1:
 E= -77.5989873311831     Delta-E=       -0.000000000150 Rises=F Damp=F
 DIIS: error= 2.52D-07 at cycle   7 NSaved=   7.
 NSaved= 7 IEnMin= 7 EnMin= -77.5989873311831     IErMin= 7 ErrMin= 2.52D-07
 ErrMax= 2.52D-07 EMaxC= 1.00D-01 BMatC= 1.03D-12 BMatP= 6.68D-11
 IDIUse=1 WtCom= 1.00D+00 WtEn= 0.00D+00
 Coeff-Com: -0.242D-04 0.769D-04 0.114D-02-0.559D-02 0.267D-01-0.208D+00
 Coeff-Com:  0.119D+01
 Coeff:     -0.242D-04 0.769D-04 0.114D-02-0.559D-02 0.267D-01-0.208D+00
 Coeff:      0.119D+01
 Gap=     0.561 Goal=   None    Shift=    0.000
 RMSDP=9.30D-08 MaxDP=3.83D-07 DE=-1.50D-10 OVMax= 7.91D-07

 Cycle   8  Pass 1  IDiag  1:
 E= -77.5989873311855     Delta-E=       -0.000000000002 Rises=F Damp=F
 DIIS: error= 1.91D-08 at cycle   8 NSaved=   8.
 NSaved= 8 IEnMin= 8 EnMin= -77.5989873311855     IErMin= 8 ErrMin= 1.91D-08
 ErrMax= 1.91D-08 EMaxC= 1.00D-01 BMatC= 7.27D-15 BMatP= 1.03D-12
 IDIUse=1 WtCom= 1.00D+00 WtEn= 0.00D+00
 Coeff-Com: -0.959D-07 0.206D-05 0.148D-04-0.607D-04-0.614D-03 0.218D-01
 Coeff-Com: -0.210D+00 0.119D+01
 Coeff:     -0.959D-07 0.206D-05 0.148D-04-0.607D-04-0.614D-03 0.218D-01
 Coeff:     -0.210D+00 0.119D+01
 Gap=     0.561 Goal=   None    Shift=    0.000
 RMSDP=8.92D-09 MaxDP=4.74D-08 DE=-2.42D-12 OVMax= 6.32D-08

 SCF Done:  E(RHF) =  -77.5989873312     A.U. after    8 cycles
             Convg  =    0.8924D-08             -V/T =  2.0046
 KE= 7.724382986400D+01 PE=-2.463811226255D+02 EE= 5.831197818553D+01
 Leave Link  502 at Fri Dec  7 12:12:25 2012, MaxMem=   33554432 cpu:       0.2
 (Enter /Applications/g09/l801.exe)
 ExpMin= 1.83D-01 ExpMax= 1.72D+02 ExpMxC= 1.72D+02 IAcc=3 IRadAn=         5 AccDes= 0.00D+00
 HarFok:  IExCor=  205 AccDes= 0.00D+00 IRadAn=         5 IDoV=-2
 ScaDFX=  1.000000  1.000000  1.000000  1.000000
 Largest valence mixing into a core orbital is  3.00D-04
 Largest core mixing into a valence orbital is  8.46D-05
 Range of M.O.s used for correlation:     3    26
 NBasis=    26 NAE=     8 NBE=     8 NFC=     2 NFV=     0
 NROrb=     24 NOA=     6 NOB=     6 NVA=    18 NVB=    18
 Leave Link  801 at Fri Dec  7 12:12:26 2012, MaxMem=   33554432 cpu:       0.3
 (Enter /Applications/g09/l914.exe)
 RHF ground state
 MDV=    33554432 DFT=F DoStab=F Mixed=F DoRPA=T DoScal=F NonHer=T
 Keep R1, R2, and R3 ints in memory in canonical form, NReq=1835872.
 Symmetry not used in FoFDir.
 MinBra= 0 MaxBra= 1 Meth= 1.
 IRaf=       0 NMat=   1 IRICut=       1 DoRegI=T DoRafI=F ISym2E= 0 JSym2E=0.
 Making orbital integer symmetry assigments:
 Orbital symmetries:
       Occupied  (A) (A) (A) (A) (A) (A) (A) (A)
       Virtual   (A) (A) (A) (A) (A) (A) (A) (A) (A) (A) (A) (A)
                 (A) (A) (A) (A) (A) (A)
    12 initial guesses have been made.
 Convergence on wavefunction:    0.001000000000000
 Davidson Disk Diagonalization:  ConvIn= 1.00D-03 SkipCon=T Conv= 1.00D-03.
 Max sub-space:   200 roots to seek:    12 dimension of matrix:    216
 Iteration     1 Dimension    12 NMult    12
 Cannot handle 2e integral symmetry, ISym2E=1.
 CISAX:  IP=  1 NPass=   1 NMax=    12.
 CISAX will form    12 AO SS matrices at one time.
 NMat=    12 NSing=    12.
 Cannot handle 2e integral symmetry, ISym2E=1.
 CISAX:  IP=  1 NPass=   1 NMax=    12.
 CISAX will form    12 AO SS matrices at one time.
 NMat=    12 NSing=    12.
 New state      1 was old state      2
 New state      2 was old state      1
 Excitation Energies [eV] at current iteration:
 Root      1 :     9.547564407317767
 Root      2 :    10.171875569813560
 Root      3 :    10.598171114530020
 Iteration     2 Dimension    18 NMult    18
 Cannot handle 2e integral symmetry, ISym2E=1.
 CISAX:  IP=  1 NPass=   1 NMax=     6.
 CISAX will form     6 AO SS matrices at one time.
 NMat=     6 NSing=     6.
 Cannot handle 2e integral symmetry, ISym2E=1.
 CISAX:  IP=  1 NPass=   1 NMax=     6.
 CISAX will form     6 AO SS matrices at one time.
 NMat=     6 NSing=     6.
 New state      1 was old state      2
 Root      1 not converged, maximum delta is    0.101813820258583
 New state      2 was old state      1
 Root      2 not converged, maximum delta is    0.035379776299490
 Root      3 not converged, maximum delta is    0.014981888747458
 Excitation Energies [eV] at current iteration:
 Root      1 :     8.516290802053534   Change is   -1.655584767760025
 Root      2 :     9.408101175813513   Change is   -0.139463231504253
 Root      3 :    10.570310377585420   Change is   -0.027860736944604
 Iteration     3 Dimension    24 NMult    24
 Cannot handle 2e integral symmetry, ISym2E=1.
 CISAX:  IP=  1 NPass=   1 NMax=     6.
 CISAX will form     6 AO SS matrices at one time.
 NMat=     6 NSing=     6.
 Cannot handle 2e integral symmetry, ISym2E=1.
 CISAX:  IP=  1 NPass=   1 NMax=     6.
 CISAX will form     6 AO SS matrices at one time.
 NMat=     6 NSing=     6.
 Root      1 not converged, maximum delta is    0.016236381273468
 Root      2 has converged.
 Root      3 has converged.
 Excitation Energies [eV] at current iteration:
 Root      1 :     8.496291035183894   Change is   -0.019999766869640
 Root      2 :     9.408101175579221   Change is   -0.000000000234293
 Root      3 :    10.570310373862550   Change is   -0.000000003722865
 Iteration     4 Dimension    26 NMult    26
 Cannot handle 2e integral symmetry, ISym2E=1.
 CISAX:  IP=  1 NPass=   1 NMax=     2.
 CISAX will form     2 AO SS matrices at one time.
 NMat=     2 NSing=     2.
 Cannot handle 2e integral symmetry, ISym2E=1.
 CISAX:  IP=  1 NPass=   1 NMax=     2.
 CISAX will form     2 AO SS matrices at one time.
 NMat=     2 NSing=     2.
 Root      1 not converged, maximum delta is    0.001947247249581
 Root      2 has converged.
 Root      3 has converged.
 Excitation Energies [eV] at current iteration:
 Root      1 :     8.495930792112723   Change is   -0.000360243071170
 Root      2 :     9.408101175562514   Change is   -0.000000000016707
 Root      3 :    10.570310373819470   Change is   -0.000000000043087
 Iteration     5 Dimension    28 NMult    28
 Cannot handle 2e integral symmetry, ISym2E=1.
 CISAX:  IP=  1 NPass=   1 NMax=     2.
 CISAX will form     2 AO SS matrices at one time.
 NMat=     2 NSing=     2.
 Cannot handle 2e integral symmetry, ISym2E=1.
 CISAX:  IP=  1 NPass=   1 NMax=     2.
 CISAX will form     2 AO SS matrices at one time.
 NMat=     2 NSing=     2.
 Root      1 has converged.
 Root      2 has converged.
 Root      3 has converged.
 Excitation Energies [eV] at current iteration:
 Root      1 :     8.495927734821311   Change is   -0.000003057291413
 Root      2 :     9.408101175548925   Change is   -0.000000000013589
 Root      3 :    10.570310373725710   Change is   -0.000000000093757
 Convergence achieved on expansion vectors.
 ***********************************************************************
 Excited states from <AA,BB:AA,BB> singles matrix:
 ***********************************************************************
 
 1PDM for each excited state written to RWF  633
 Ground to excited state transition densities written to RWF  633
 Ground to excited state transition electric dipole moments (Au):
       state          X           Y           Z        Dip. S.      Osc.
         1         1.5044      0.0000      0.0000      2.2633      0.4711
         2        -0.0001      0.0000      0.0000      0.0000      0.0000
         3         0.0000      0.0000      0.0000      0.0000      0.0000
 Ground to excited state transition velocity dipole moments (Au):
       state          X           Y           Z        Dip. S.      Osc.
         1        -0.3928      0.0000      0.0000      0.1543      0.3294
         2         0.0000      0.0000      0.0000      0.0000      0.0000
         3         0.0000      0.0000      0.0000      0.0000      0.0000
 Ground to excited state transition magnetic dipole moments (Au):
       state          X           Y           Z
         1         0.0000      0.0000      0.0000
         2         1.3927     -0.0001      0.0000
         3         0.0963      0.0005      0.0000
 Ground to excited state transition velocity quadrupole moments (Au):
       state          XX          YY          ZZ          XY          XZ          YZ
         1         0.0000      0.0000      0.0000      0.0000      0.0000      0.0000
         2         0.0000      0.0000      0.0000      0.0000      0.0000      0.1687
         3         0.0000      0.0000      0.0000      0.0000     -0.0001      0.0067
 <0|del|b> * <b|rxdel|0> + <0|del|b> * <b|delr+rdel|0>
 Rotatory Strengths (R) in cgs (10**-40 erg-esu-cm/Gauss)
       state          XX          YY          ZZ    R(velocity)
         1         0.0000     -0.0199     -0.0153     -0.0117
         2         0.0000      0.0250      0.0196      0.0149
         3         0.0000     -0.0013     -0.0011     -0.0008
 1/2[<0|r|b>*<b|rxdel|0> + (<0|rxdel|b>*<b|r|0>)*]
 Rotatory Strengths (R) in cgs (10**-40 erg-esu-cm/Gauss)
       state          XX          YY          ZZ     R(length)
         1        -0.0420      0.0000      0.0000     -0.0140
         2         0.0511      0.0000      0.0000      0.0170
         3        -0.0028      0.0000      0.0000     -0.0009
  1/2[<0|del|b>*<b|r|0> + (<0|r|b>*<b|del|0>)*] (Au)
       state          X           Y           Z        Dip. S.   Osc.(frdel)
         1        -0.5909      0.0000      0.0000      0.5909      0.3940
         2         0.0000      0.0000      0.0000      0.0000      0.0000
         3         0.0000      0.0000      0.0000      0.0000      0.0000

 Excitation energies and oscillator strengths:
 
 Excited State   1:      Singlet-A      8.4959 eV  145.93 nm  f=0.4711  <S**2>=0.000
       8 ->  9         0.69997
 This state for optimization and/or second-order correction.
 Total Energy, E(TD-HF/TD-KS) =  -77.2867677183    
 Copying the excited state density for this state as the 1-particle RhoCI density.
 
 Excited State   2:      Singlet-A      9.4081 eV  131.78 nm  f=0.0000  <S**2>=0.000
       7 ->  9         0.69611
       8 -> 11         0.11445
 
 Excited State   3:      Singlet-A     10.5703 eV  117.29 nm  f=0.0000  <S**2>=0.000
       7 ->  9        -0.11484
       8 -> 11         0.69626
 SavETr:  write IOETrn=   770 NScale= 10 NData=  16 NLR=1 LETran=      64.
 Leave Link  914 at Fri Dec  7 12:12:26 2012, MaxMem=   33554432 cpu:       0.4
 (Enter /Applications/g09/l601.exe)
 Copying SCF densities to generalized density rwf, IOpCl= 0 IROHF=0.

 **********************************************************************

            Population analysis using the SCF density.

 **********************************************************************

 Orbital symmetries:
       Occupied  (A) (A) (A) (A) (A) (A) (A) (A)
       Virtual   (A) (A) (A) (A) (A) (A) (A) (A) (A) (A) (A) (A)
                 (A) (A) (A) (A) (A) (A)
 The electronic state is 1-A.
 Alpha  occ. eigenvalues --  -11.17482 -11.17474  -1.03110  -0.78272  -0.63449
 Alpha  occ. eigenvalues --   -0.58953  -0.49106  -0.37821
 Alpha virt. eigenvalues --    0.18317   0.29452   0.30286   0.33149   0.43534
 Alpha virt. eigenvalues --    0.54418   0.88360   0.92981   0.99012   1.07591
 Alpha virt. eigenvalues --    1.10641   1.12774   1.30196   1.33777   1.38846
 Alpha virt. eigenvalues --    1.62047   1.64588   1.96348
          Condensed to atoms (all electrons):
              1          2          3          4          5          6
     1  C    5.199785   0.531642   0.390450   0.390451  -0.046223  -0.046219
     2  C    0.531642   5.199785  -0.046223  -0.046219   0.390450   0.390451
     3  H    0.390450  -0.046223   0.469591  -0.023547   0.001982  -0.002195
     4  H    0.390451  -0.046219  -0.023547   0.469583  -0.002195   0.001982
     5  H   -0.046223   0.390450   0.001982  -0.002195   0.469591  -0.023547
     6  H   -0.046219   0.390451  -0.002195   0.001982  -0.023547   0.469583
 Mulliken atomic charges:
              1
     1  C   -0.419885
     2  C   -0.419885
     3  H    0.209941
     4  H    0.209945
     5  H    0.209941
     6  H    0.209945
 Sum of Mulliken atomic charges =   0.00000
 Mulliken charges with hydrogens summed into heavy atoms:
              1
     1  C    0.000000
     2  C    0.000000
 Sum of Mulliken charges with hydrogens summed into heavy atoms =   0.00000
 Electronic spatial extent (au):  <R**2>=             83.4955
 Charge=              0.0000 electrons
 Dipole moment (field-independent basis, Debye):
    X=              0.0000    Y=              0.0000    Z=              0.0000  Tot=              0.0000
 Quadrupole moment (field-independent basis, Debye-Ang):
   XX=            -12.0173   YY=            -12.4333   ZZ=            -15.7806
   XY=             -0.0001   XZ=              0.0000   YZ=              0.0001
 Traceless Quadrupole moment (field-independent basis, Debye-Ang):
   XX=              1.3931   YY=              0.9771   ZZ=             -2.3702
   XY=             -0.0001   XZ=              0.0000   YZ=              0.0001
 Octapole moment (field-independent basis, Debye-Ang**2):
  XXX=              0.0000  YYY=              0.0000  ZZZ=              0.0000  XYY=              0.0000
  XXY=              0.0000  XXZ=              0.0000  XZZ=              0.0000  YZZ=              0.0000
  YYZ=              0.0000  XYZ=              0.0000
 Hexadecapole moment (field-independent basis, Debye-Ang**3):
 XXXX=            -66.0262 YYYY=            -25.5822 ZZZZ=            -16.5415 XXXY=             -0.0004
 XXXZ=              0.0000 YYYX=              0.0000 YYYZ=              0.0000 ZZZX=              0.0001
 ZZZY=             -0.0001 XXYY=            -12.4588 XXZZ=            -15.0894 YYZZ=             -7.6781
 XXYZ=              0.0000 YYXZ=              0.0000 ZZXY=              0.0000
 N-N= 3.322632724479D+01 E-N=-2.463811225545D+02  KE= 7.724382986400D+01
 Leave Link  601 at Fri Dec  7 12:12:27 2012, MaxMem=   33554432 cpu:       0.1
 (Enter /Applications/g09/l9999.exe)
 1\1\GINC-DIRAC\SP\RTD-FC\3-21G\C2H4\JOSEPHMAY\07-Dec-2012\0\\#p td hf/
 3-21g\\Ethene TDHF\\0,1\C,0,-2.07219246,0.4144385,0.\C,0,-0.74627646,0
 .4144385,0.\H,0,-2.66577746,1.3384765,0.\H,0,-2.66580846,-0.5095755,-0
 .000022\H,0,-0.15269146,-0.5095995,-0.000019\H,0,-0.15266046,1.3384525
 ,0.000026\\Version=EM64M-G09RevC.01\State=1-A\HF=-77.5989873\RMSD=8.92
 4e-09\PG=C01 [X(C2H4)]\\@


 QUHEN THE CAUSS IS TAKEN AWAY THE EFFECT WANISHETH.
 -- PROVERBS AND REASONS OF THE YEAR 1585
           AS REPRINTED IN PAISLEY MAGAZINE 1828.
 Job cpu time:  0 days  0 hours  0 minutes  2.6 seconds.
 File lengths (MBytes):  RWF=      5 Int=      0 D2E=      0 Chk=      1 Scr=      1
 Normal termination of Gaussian 09 at Fri Dec  7 12:12:27 2012.
